//mumax 3.10 [windows_amd64 go1.11.6(gc) CUDA-11.0]
//GPU info: NVIDIA GeForce GTX 970(4095MB), CUDA Driver 11.5, cc=5.2, using cc=52 PTX
//(c) Arne Vansteenkiste, Dynamat LAB, Ghent University, Belgium
//This is free software without any warranty. See license.txt
//********************************************************************//
//  If you use mumax in any work or publication,                      //
//  we kindly ask you to cite the references in references.bib        //
//********************************************************************//
//output directory: simulation.out/
c := 10e-9
cz := 10e-9
height := 100e-9
width := 500e-9
nanotube_width := 10e-9
nanotube_height := 7820e-9
thickness := 50e-9
x_displacement := 500e-9
y_displacement := 380e-9
z_displacement := thickness + 100e-9
SetGridsize(100, 782, 24)
SetCellsize(c, c, cz)
Msat = 800e3
Aex = 13e-12
alpha = 0.1
EdgeSmooth = 8
magnets := universe().sub(universe())
system := universe().sub(universe())
rect1 := cuboid(width, height, thickness)
rect2 := cuboid(nanotube_width, nanotube_height, thickness)
for i := 0; i <= 0; i += 1 {
	top_left := rect1.transl(-i*width*2-x_displacement, y_displacement, 0)
	top_right := rect1.transl(i*width*2+x_displacement, y_displacement, 0)
	bottom_left := rect1.transl(-i*width*2, -y_displacement, 0)
	if i > 0 {
		bottom_right := rect1.transl(i*width*2, -y_displacement, 0)
		magnets = magnets.add(top_left).add(bottom_left).add(top_right).add(bottom_right)
	} else {
		magnets = magnets.add(top_left).add(bottom_left).add(top_right)
	}
}
nanotube := rect2.transl(0, 0, z_displacement)
system = system.add(nanotube).add(magnets)
system = system.add(nanotube).add(magnets)
setgeom(system)
snapshot(geom)
DefRegion(1, magnets)
DefRegion(2, nanotube)
Msat.SetRegion(1, 800e3)
Aex.SetRegion(1, 13e-12)
alpha.SetRegion(1, 0.05)
EdgeSmooth = 8
Msat.SetRegion(0, 0)
m.SetRegion(0, uniform(0, 0, 0))
Aex.SetRegion(0, 0)
Msat.SetRegion(2, 0)
m.SetRegion(2, uniform(0, 0, 0))
Aex.SetRegion(2, 0)
m.SetRegion(1, randomMag())
B_ext = vector(250.0e-3, 0, 0)
relax()
save(B_eff)
//********************************************************************//
//Please cite the following references, relevant for your simulation. //
//See bibtex file in output folder for justification.                 //
//********************************************************************//
//   * Vansteenkiste et al., AIP Adv. 4, 107133 (2014).
